Program Version,EnergyPlus, Version 23.1.0-87ed9199d4, YMD=2024.03.04 18:43
1,5,Environment Title[],Latitude[deg],Longitude[deg],Time Zone[],Elevation[m]
2,8,Day of Simulation[],Month[],Day of Month[],DST Indicator[1=yes 0=no],Hour[],StartMinute[],EndMinute[],DayType
3,5,Cumulative Day of Simulation[],Month[],Day of Month[],DST Indicator[1=yes 0=no],DayType  ! When Daily Report Variables Requested
4,2,Cumulative Days of Simulation[],Month[]  ! When Monthly Report Variables Requested
5,1,Cumulative Days of Simulation[] ! When Run Period Report Variables Requested
6,1,Calendar Year of Simulation[] ! When Annual Report Variables Requested
7,1,THERMAL ZONE 1,Zone Outdoor Air Drybulb Temperature [C] !Hourly
8,1,THERMAL ZONE 2,Zone Outdoor Air Drybulb Temperature [C] !Hourly
9,1,THERMAL ZONE 3,Zone Outdoor Air Drybulb Temperature [C] !Hourly
10,1,THERMAL ZONE 4,Zone Outdoor Air Drybulb Temperature [C] !Hourly
11,1,THERMAL ZONE 5,Zone Outdoor Air Drybulb Temperature [C] !Hourly
12,1,SPACE 101 189.1-2009 - OFFICE - IT_ROOM - CZ1-3 LIGHTS,Lights Electricity Energy [J] !Hourly
133,1,SPACE 105 189.1-2009 - OFFICE - IT_ROOM - CZ1-3 LIGHTS,Lights Electricity Energy [J] !Hourly
134,1,SPACE 103 189.1-2009 - OFFICE - IT_ROOM - CZ1-3 LIGHTS,Lights Electricity Energy [J] !Hourly
135,1,SPACE 107 189.1-2009 - OFFICE - IT_ROOM - CZ1-3 LIGHTS,Lights Electricity Energy [J] !Hourly
136,1,SPACE 118 189.1-2009 - OFFICE - OPENOFFICE - CZ4-8 LIGHTS,Lights Electricity Energy [J] !Hourly
209,1,SPACE 108 189.1-2009 - OFFICE - OPENOFFICE - CZ4-8 LIGHTS,Lights Electricity Energy [J] !Hourly
210,1,SPACE 109 189.1-2009 - OFFICE - OPENOFFICE - CZ4-8 LIGHTS,Lights Electricity Energy [J] !Hourly
211,1,SPACE 111 189.1-2009 - OFFICE - OPENOFFICE - CZ4-8 LIGHTS,Lights Electricity Energy [J] !Hourly
212,1,SPACE 115 189.1-2009 - OFFICE - OPENOFFICE - CZ4-8 LIGHTS,Lights Electricity Energy [J] !Hourly
213,1,SPACE 113 189.1-2009 - OFFICE - OPENOFFICE - CZ4-8 LIGHTS,Lights Electricity Energy [J] !Hourly
214,1,SPACE 112 189.1-2009 - OFFICE - OPENOFFICE - CZ4-8 LIGHTS,Lights Electricity Energy [J] !Hourly
215,1,SPACE 114 189.1-2009 - OFFICE - OPENOFFICE - CZ4-8 LIGHTS,Lights Electricity Energy [J] !Hourly
216,1,SPACE 116 189.1-2009 - OFFICE - OPENOFFICE - CZ4-8 LIGHTS,Lights Electricity Energy [J] !Hourly
217,1,SPACE 117 189.1-2009 - OFFICE - OPENOFFICE - CZ4-8 LIGHTS,Lights Electricity Energy [J] !Hourly
218,1,SPACE 106 189.1-2009 - OFFICE - BREAKROOM - CZ1-3 LIGHTS,Lights Electricity Energy [J] !Hourly
291,1,SPACE 119 189.1-2009 - OFFICE - LOBBY - CZ1-3 LIGHTS 1,Lights Electricity Energy [J] !Hourly
364,1,SPACE 120 189.1-2009 - OFFICE - LOBBY - CZ1-3 LIGHTS 2,Lights Electricity Energy [J] !Hourly
401,1,SPACE 121 189.1-2009 - OFFICE - LOBBY - CZ4-8 LIGHTS 1,Lights Electricity Energy [J] !Hourly
474,1,SPACE 122 189.1-2009 - OFFICE - LOBBY - CZ4-8 LIGHTS 2,Lights Electricity Energy [J] !Hourly
511,1,THERMAL ZONE 1,Zone Lights Electricity Energy [J] !Hourly
512,1,THERMAL ZONE 2,Zone Lights Electricity Energy [J] !Hourly
513,1,THERMAL ZONE 3,Zone Lights Electricity Energy [J] !Hourly
514,1,THERMAL ZONE 4,Zone Lights Electricity Energy [J] !Hourly
515,1,THERMAL ZONE 5,Zone Lights Electricity Energy [J] !Hourly
847,1,THERMAL ZONE 1,Zone Air Temperature [C] !Hourly
848,1,THERMAL ZONE 1,Zone Air Relative Humidity [%] !Hourly
983,1,THERMAL ZONE 2,Zone Air Temperature [C] !Hourly
984,1,THERMAL ZONE 2,Zone Air Relative Humidity [%] !Hourly
1047,1,THERMAL ZONE 3,Zone Air Temperature [C] !Hourly
1048,1,THERMAL ZONE 3,Zone Air Relative Humidity [%] !Hourly
1111,1,THERMAL ZONE 4,Zone Air Temperature [C] !Hourly
1112,1,THERMAL ZONE 4,Zone Air Relative Humidity [%] !Hourly
1175,1,THERMAL ZONE 5,Zone Air Temperature [C] !Hourly
1176,1,THERMAL ZONE 5,Zone Air Relative Humidity [%] !Hourly
1457,1,PARALLEL PIU ELEC RHT COIL,Heating Coil Electricity Energy [J] !Hourly
1483,1,PARALLEL PIU ELEC RHT COIL 1,Heating Coil Electricity Energy [J] !Hourly
1485,1,PARALLEL PIU ELEC RHT COIL 2,Heating Coil Electricity Energy [J] !Hourly
1487,1,PARALLEL PIU ELEC RHT COIL 3,Heating Coil Electricity Energy [J] !Hourly
1489,1,PARALLEL PIU ELEC RHT COIL 4,Heating Coil Electricity Energy [J] !Hourly
1491,1,PTAC ELEC HTG COIL,Heating Coil Electricity Energy [J] !Hourly
1493,1,PTAC ELEC HTG COIL 1,Heating Coil Electricity Energy [J] !Hourly
1495,1,PTAC ELEC HTG COIL 2,Heating Coil Electricity Energy [J] !Hourly
1497,1,PTAC ELEC HTG COIL 3,Heating Coil Electricity Energy [J] !Hourly
1499,1,PTAC ELEC HTG COIL 4,Heating Coil Electricity Energy [J] !Hourly
1513,1,2 SPD DX CLG COIL,Cooling Coil Electricity Energy [J] !Hourly
1539,1,2 SPD DX CLG COIL 1,Cooling Coil Electricity Energy [J] !Hourly
1541,1,2 SPD DX CLG COIL 2,Cooling Coil Electricity Energy [J] !Hourly
1543,1,2 SPD DX CLG COIL 3,Cooling Coil Electricity Energy [J] !Hourly
1545,1,2 SPD DX CLG COIL 4,Cooling Coil Electricity Energy [J] !Hourly
13,1,Electricity:Facility [J] !TimeStep
End of Data Dictionary
1,RUN PERIOD 1,  39.80, 116.47,   8.00,  31.30
2,1, 6, 1, 0, 1, 0.00,60.00,Thursday
13,4555207.235414474
2,1, 6, 1, 0, 1, 0.00,60.00,Thursday
7,14.0
8,14.0
9,14.0
10,14.0
11,14.0
12,17263.159526319014
133,17263.159526319014
134,46035.09207018403
135,38362.57672515336
136,8631.579763159507
209,11508.773017546007
210,28771.93254386502
211,40280.70556141103
212,8631.579763159507
213,17263.159526319014
214,11508.773017546007
215,11508.773017546007
216,8631.579763159507
217,8631.579763159507
218,50220.100440200884
291,27202.554405108865
364,34003.19300638608
401,27202.554405108865
474,34003.19300638607
511,118923.98784797541
512,155368.4357368711
513,50220.100440200884
514,61205.74741149494
515,61205.74741149494
847,21.299666252992566
848,64.18762559743303
983,20.282328311047383
984,60.525618039034775
1047,23.451892957890436
1048,49.144917885741464
1111,20.2388327075302
1112,60.97798830289947
1175,20.476583153690346
1176,57.64444400687987
1457,0.0
1483,0.0
1485,0.0
1487,0.0
1489,0.0
1491,0.0
1493,0.0
1495,0.0
1497,0.0
1499,0.0
1513,0.0
1539,0.0
1541,0.0
1543,0.0
1545,0.0
2,1, 6, 1, 0, 2, 0.00,60.00,Thursday
13,4555207.235414474
2,1, 6, 1, 0, 2, 0.00,60.00,Thursday
7,12.8
8,12.8
9,12.8
10,12.8
11,12.8
12,17263.159526319014
133,17263.159526319014
134,46035.09207018403
135,38362.57672515336
136,8631.579763159507
209,11508.773017546007
210,28771.93254386502
211,40280.70556141103
212,8631.579763159507
213,17263.159526319014
214,11508.773017546007
215,11508.773017546007
216,8631.579763159507
217,8631.579763159507
218,50220.100440200884
291,27202.554405108865
364,34003.19300638608
401,27202.554405108865
474,34003.19300638607
511,118923.98784797541
512,155368.4357368711
513,50220.100440200884
514,61205.74741149494
515,61205.74741149494
847,20.44855466984236
848,60.865285705289295
983,19.6944423126546
984,58.493201784821515
1047,22.421433266098937
1048,48.55361243151108
1111,19.62327573964273
1112,59.01802385054563
1175,19.852161172039406
1176,57.422166395099914
1457,0.0
1483,0.0
1485,0.0
1487,0.0
1489,0.0
1491,0.0
1493,0.0
1495,0.0
1497,0.0
1499,0.0
1513,0.0
1539,0.0
1541,0.0
1543,0.0
1545,0.0
2,1, 6, 1, 0, 3, 0.00,60.00,Thursday
13,4555207.235414474
2,1, 6, 1, 0, 3, 0.00,60.00,Thursday
7,12.0
8,12.0
9,12.0
10,12.0
11,12.0
12,17263.159526319014
133,17263.159526319014
134,46035.09207018403
135,38362.57672515336
136,8631.579763159507
209,11508.773017546007
210,28771.93254386502
211,40280.70556141103
212,8631.579763159507
213,17263.159526319014
214,11508.773017546007
215,11508.773017546007
216,8631.579763159507
217,8631.579763159507
218,50220.100440200884
291,27202.554405108865
364,34003.19300638608
401,27202.554405108865
474,34003.19300638607
511,118923.98784797541
512,155368.4357368711
513,50220.100440200884
514,61205.74741149494
515,61205.74741149494
847,19.783459216775995
848,58.195576100942205
983,19.020100245766756
984,57.25168280967997
1047,21.566573913058228
1048,47.92513398401258
1111,18.985047958747167
1112,57.62818377575803
1175,19.270142135157357
1176,56.95762963026205
1457,0.0
1483,0.0
1485,0.0
1487,0.0
1489,0.0
1491,0.0
1493,0.0
1495,0.0
1497,0.0
1499,0.0
1513,0.0
1539,0.0
1541,0.0
1543,0.0
1545,0.0
2,1, 6, 1, 0, 4, 0.00,60.00,Thursday
13,4555207.235414474
2,1, 6, 1, 0, 4, 0.00,60.00,Thursday
7,11.6
8,11.6
9,11.6
10,11.6
11,11.6
12,17263.159526319014
133,17263.159526319014
134,46035.09207018403
135,38362.57672515336
136,8631.579763159507
209,11508.773017546007
210,28771.93254386502
211,40280.70556141103
212,8631.579763159507
213,17263.159526319014
214,11508.773017546007
215,11508.773017546007
216,8631.579763159507
217,8631.579763159507
218,50220.100440200884
291,27202.554405108865
364,34003.19300638608
401,27202.554405108865
474,34003.19300638607
511,118923.98784797541
512,155368.4357368711
513,50220.100440200884
514,61205.74741149494
515,61205.74741149494
847,19.208665159143578
848,52.82646776553949
983,18.505679939446082
984,53.86274173557294
1047,20.842254430286022
1048,45.922372457111635
1111,18.50307253077787
1112,54.02659768918059
1175,18.74575900851142
1176,54.51273513168553
1457,0.0
1483,0.0
1485,0.0
1487,0.0
1489,0.0
1491,0.0
1493,0.0
1495,0.0
1497,0.0
1499,0.0
1513,0.0
1539,0.0
1541,0.0
1543,0.0
1545,0.0
2,1, 6, 1, 0, 5, 0.00,60.00,Thursday
13,4555207.235414474
2,1, 6, 1, 0, 5, 0.00,60.00,Thursday
7,11.5
8,11.5
9,11.5
10,11.5
11,11.5
12,17263.159526319014
133,17263.159526319014
134,46035.09207018403
135,38362.57672515336
136,8631.579763159507
209,11508.773017546007
210,28771.93254386502
211,40280.70556141103
212,8631.579763159507
213,17263.159526319014
214,11508.773017546007
215,11508.773017546007
216,8631.579763159507
217,8631.579763159507
218,50220.100440200884
291,27202.554405108865
364,34003.19300638608
401,27202.554405108865
474,34003.19300638607
511,118923.98784797541
512,155368.4357368711
513,50220.100440200884
514,61205.74741149494
515,61205.74741149494
847,18.90593279194549
848,53.41582523165937
983,18.16219071473091
984,54.750278176524446
1047,20.449745031614782
1048,46.935093331642136
1111,18.182331629228308
1112,54.81151660916428
1175,18.438134044911067
1176,55.036925036067075
1457,0.0
1483,0.0
1485,0.0
1487,0.0
1489,0.0
1491,0.0
1493,0.0
1495,0.0
1497,0.0
1499,0.0
1513,0.0
1539,0.0
1541,0.0
1543,0.0
1545,0.0
2,1, 6, 1, 0, 6, 0.00,60.00,Thursday
13,5002131.254262512
2,1, 6, 1, 0, 6, 0.00,60.00,Thursday
7,11.8
8,11.8
9,11.8
10,11.8
11,11.8
12,34526.31905263803
133,34526.31905263803
134,92070.18414036806
135,76725.15345030672
136,17263.159526319014
209,23017.546035092015
210,57543.86508773004
211,80561.41112282206
212,17263.159526319014
213,34526.31905263803
214,23017.546035092015
215,23017.546035092015
216,17263.159526319014
217,17263.159526319014
218,100440.20088040177
291,54405.10881021773
364,68006.38601277216
401,54405.10881021773
474,68006.38601277214
511,237847.97569595082
512,310736.8714737422
513,100440.20088040177
514,122411.49482298987
515,122411.49482298987
847,18.776822494159553
848,53.97863330942671
983,17.990005029493528
984,55.701106455171015
1047,20.284653984180558
1048,47.934823530897624
1111,18.011890192518926
1112,55.713424712153206
1175,18.263527843815734
1176,55.49760045213503
1457,0.0
1483,0.0
1485,0.0
1487,0.0
1489,0.0
1491,0.0
1493,0.0
1495,0.0
1497,0.0
1499,0.0
1513,0.0
1539,0.0
1541,0.0
1543,0.0
1545,0.0
2,1, 6, 1, 0, 7, 0.00,60.00,Thursday
13,5002131.254262512
2,1, 6, 1, 0, 7, 0.00,60.00,Thursday
7,12.4
8,12.4
9,12.4
10,12.4
11,12.4
12,34526.31905263803
133,34526.31905263803
134,92070.18414036806
135,76725.15345030672
136,17263.159526319014
209,23017.546035092015
210,57543.86508773004
211,80561.41112282206
212,17263.159526319014
213,34526.31905263803
214,23017.546035092015
215,23017.546035092015
216,17263.159526319014
217,17263.159526319014
218,100440.20088040177
291,54405.10881021773
364,68006.38601277216
401,54405.10881021773
474,68006.38601277214
511,237847.97569595082
512,310736.8714737422
513,100440.20088040177
514,122411.49482298987
515,122411.49482298987
847,20.88920342024909
848,49.842251725833265
983,19.50361037178634
984,53.387745350511594
1047,22.254609603380853
1048,45.23937856017198
1111,19.467960197618726
1112,53.33341507660547
1175,19.169670829358004
1176,53.0915289128642
1457,0.0
1483,0.0
1485,0.0
1487,0.0
1489,0.0
1491,0.0
1493,0.0
1495,0.0
1497,0.0
1499,0.0
1513,0.0
1539,0.0
1541,0.0
1543,0.0
1545,0.0
2,1, 6, 1, 0, 8, 0.00,60.00,Thursday
13,6789827.329654662
2,1, 6, 1, 0, 8, 0.00,60.00,Thursday
7,13.3
8,13.3
9,13.3
10,13.3
11,13.3
12,103578.95715791408
133,103578.95715791408
134,276210.5524211042
135,230175.46035092016
136,51789.47857895704
209,69052.63810527606
210,172631.59526319013
211,241684.23336846617
212,51789.47857895704
213,103578.95715791408
214,69052.63810527606
215,69052.63810527606
216,51789.47857895704
217,51789.47857895704
218,301320.6026412053
291,163215.32643065316
364,204019.15803831647
401,163215.32643065316
474,204019.1580383164
511,713543.9270878525
512,932210.6144212267
513,301320.6026412053
514,367234.48446896963
515,367234.48446896963
847,21.921455838013674
848,54.65708680654276
983,20.915246245875753
984,56.64708908004803
1047,23.374202385830536
1048,50.24223597656382
1111,21.215388167570406
1112,54.762377550982436
1175,20.54593718427195
1176,50.65213097002282
1457,0.0
1483,0.0
1485,0.0
1487,0.0
1489,0.0
1491,0.0
1493,0.0
1495,0.0
1497,0.0
1499,0.0
1513,0.0
1539,0.0
1541,0.0
1543,0.0
1545,0.0
2,1, 6, 1, 0, 9, 0.00,60.00,Thursday
13,145166902.69519398
2,1, 6, 1, 0, 9, 0.00,60.00,Thursday
7,14.1
8,14.1
9,14.1
10,14.1
11,14.1
12,310736.87147374224
133,310736.87147374224
134,828631.6572633126
135,690526.3810527605
136,155368.43573687112
209,207157.91431582815
210,517894.7857895704
211,725052.7001053985
212,155368.43573687112
213,310736.87147374224
214,207157.91431582815
215,207157.91431582815
216,155368.43573687112
217,155368.43573687112
218,903961.8079236159
291,489645.9792919595
364,612057.4741149495
401,489645.9792919595
474,612057.4741149492
511,2140631.7812635577
512,2796631.8432636806
513,903961.8079236159
514,1101703.453406909
515,1101703.4534069088
847,23.883919580288264
848,55.483182264475076
983,20.97339615861198
984,60.27960079442815
1047,23.95641603629879
1048,47.08673776471068
1111,24.068162720389132
1112,47.411390824602684
1175,21.579897770849808
1176,50.47263124415845
1457,0.0
1483,0.0
1485,0.0
1487,0.0
1489,0.0
1491,28613.3926698083
1493,635312.251417207
1495,0.0
1497,412634.14034339454
1499,0.0
1513,984050.4011680286
1539,0.0
1541,1301231.7437497796
1543,38697298.866610214
1545,0.0
2,1, 6, 1, 0,10, 0.00,60.00,Thursday
13,131742711.19907165
2,1, 6, 1, 0,10, 0.00,60.00,Thursday
7,14.7
8,14.7
9,14.7
10,14.7
11,14.7
12,310736.87147374224
133,310736.87147374224
134,828631.6572633126
135,690526.3810527605
136,155368.43573687112
209,207157.91431582815
210,517894.7857895704
211,725052.7001053985
212,155368.43573687112
213,310736.87147374224
214,207157.91431582815
215,207157.91431582815
216,155368.43573687112
217,155368.43573687112
218,903961.8079236159
291,489645.9792919595
364,612057.4741149495
401,489645.9792919595
474,612057.4741149492
511,2140631.7812635577
512,2796631.8432636806
513,903961.8079236159
514,1101703.453406909
515,1101703.4534069088
847,23.997630490221923
848,61.21873721908473
983,23.000345771399626
984,53.16533267038659
1047,23.97090723895005
1048,46.59282827914312
1111,26.319134396773705
1112,41.948928376392196
1175,22.301217041476455
1176,49.60703177444095
1457,0.0
1483,0.0
1485,0.0
1487,0.0
1489,0.0
1491,0.0
1493,4381292.481660642
1495,0.0
1497,1239315.7856918972
1499,0.0
1513,1208264.7263446096
1539,0.0
1541,1693411.7993448097
1543,35274597.67402809
1545,0.0
2,1, 6, 1, 0,11, 0.00,60.00,Thursday
13,241598930.67394197
2,1, 6, 1, 0,11, 0.00,60.00,Thursday
7,15.3
8,15.3
9,15.3
10,15.3
11,15.3
12,310736.87147374224
133,310736.87147374224
134,828631.6572633126
135,690526.3810527605
136,155368.43573687112
209,207157.91431582815
210,517894.7857895704
211,725052.7001053985
212,155368.43573687112
213,310736.87147374224
214,207157.91431582815
215,207157.91431582815
216,155368.43573687112
217,155368.43573687112
218,903961.8079236159
291,489645.9792919595
364,612057.4741149495
401,489645.9792919595
474,612057.4741149492
511,2140631.7812635577
512,2796631.8432636806
513,903961.8079236159
514,1101703.453406909
515,1101703.4534069088
847,23.99997640615383
848,65.88149087119093
983,23.672279655052105
984,51.244597379340156
1047,23.985237210295537
1048,45.70917311797523
1111,24.520172942549657
1112,48.528659229275746
1175,22.840275486599175
1176,48.579404145718385
1457,0.0
1483,0.0
1485,0.0
1487,0.0
1489,0.0
1491,0.0
1493,5190431.001845098
1495,0.0
1497,0.0
1499,0.0
1513,1618444.06347128
1539,0.0
1541,1867429.9303567496
1543,87308249.58199924
1545,0.0
2,1, 6, 1, 0,12, 0.00,60.00,Thursday
13,270997768.15247846
2,1, 6, 1, 0,12, 0.00,60.00,Thursday
7,16.0
8,16.0
9,16.0
10,16.0
11,16.0
12,310736.87147374224
133,310736.87147374224
134,828631.6572633126
135,690526.3810527605
136,155368.43573687112
209,207157.91431582815
210,517894.7857895704
211,725052.7001053985
212,155368.43573687112
213,310736.87147374224
214,207157.91431582815
215,207157.91431582815
216,155368.43573687112
217,155368.43573687112
218,903961.8079236159
291,489645.9792919595
364,612057.4741149495
401,489645.9792919595
474,612057.4741149492
511,2140631.7812635577
512,2796631.8432636806
513,903961.8079236159
514,1101703.453406909
515,1101703.4534069088
847,23.99999909608426
848,68.263517923303
983,23.843561857995066
984,50.19949808046002
1047,23.988382358767048
1048,45.146005059280554
1111,24.294703047649094
1112,49.789560983360744
1175,23.631778695666238
1176,45.89052013625186
1457,0.0
1483,0.0
1485,0.0
1487,0.0
1489,0.0
1491,0.0
1493,3601804.715655401
1495,0.0
1497,0.0
1499,284324.916582338
1513,1727425.3437933517
1539,136241.4369431575
1541,1769168.2859212672
1543,82862524.83293433
1545,11040864.30843947
2,1, 6, 1, 0,13, 0.00,60.00,Thursday
13,355536498.56775016
2,1, 6, 1, 0,13, 0.00,60.00,Thursday
7,17.1
8,17.1
9,17.1
10,17.1
11,17.1
12,310736.87147374224
133,310736.87147374224
134,828631.6572633126
135,690526.3810527605
136,155368.43573687112
209,207157.91431582815
210,517894.7857895704
211,725052.7001053985
212,155368.43573687112
213,310736.87147374224
214,207157.91431582815
215,207157.91431582815
216,155368.43573687112
217,155368.43573687112
218,903961.8079236159
291,489645.9792919595
364,612057.4741149495
401,489645.9792919595
474,612057.4741149492
511,2140631.7812635577
512,2796631.8432636806
513,903961.8079236159
514,1101703.453406909
515,1101703.4534069088
847,23.99999998962454
848,71.23913557556621
983,23.90407459291601
984,47.868125419405835
1047,23.990807891215102
1048,44.50907903702206
1111,24.16884458170094
1112,50.8282438876538
1175,23.702420663949233
1176,45.35490127581178
1457,0.0
1483,0.0
1485,0.0
1487,0.0
1489,0.0
1491,0.0
1493,7314726.524714294
1495,0.0
1497,0.0
1499,0.0
1513,1710272.0513563165
1539,0.0
1541,1930940.0877775252
1543,82958185.69215186
1545,31730745.299073193
2,1, 6, 1, 0,14, 0.00,60.00,Thursday
13,360007224.0146858
2,1, 6, 1, 0,14, 0.00,60.00,Thursday
7,18.9
8,18.9
9,18.9
10,18.9
11,18.9
12,310736.87147374224
133,310736.87147374224
134,828631.6572633126
135,690526.3810527605
136,155368.43573687112
209,207157.91431582815
210,517894.7857895704
211,725052.7001053985
212,155368.43573687112
213,310736.87147374224
214,207157.91431582815
215,207157.91431582815
216,155368.43573687112
217,155368.43573687112
218,903961.8079236159
291,489645.9792919595
364,612057.4741149495
401,489645.9792919595
474,612057.4741149492
511,2140631.7812635577
512,2796631.8432636806
513,903961.8079236159
514,1101703.453406909
515,1101703.4534069088
847,23.999999999086782
848,73.77170800516133
983,23.936535126122852
984,47.85598815635479
1047,23.992091849828277
1048,44.09300451638983
1111,24.120250685816284
1112,51.349097316274836
1175,23.70435808650298
1176,45.1113757840531
1457,0.0
1483,0.0
1485,0.0
1487,0.0
1489,0.0
1491,0.0
1493,0.0
1495,0.0
1497,0.0
1499,0.0
1513,2146978.971379337
1539,0.0
1541,2497718.942122313
1543,89395904.5734135
1545,35048835.19499356
2,1, 6, 1, 0,15, 0.00,60.00,Thursday
13,375986242.9569036
2,1, 6, 1, 0,15, 0.00,60.00,Thursday
7,21.4
8,21.4
9,21.4
10,21.4
11,21.4
12,310736.87147374224
133,310736.87147374224
134,828631.6572633126
135,690526.3810527605
136,155368.43573687112
209,207157.91431582815
210,517894.7857895704
211,725052.7001053985
212,155368.43573687112
213,310736.87147374224
214,207157.91431582815
215,207157.91431582815
216,155368.43573687112
217,155368.43573687112
218,903961.8079236159
291,489645.9792919595
364,612057.4741149495
401,489645.9792919595
474,612057.4741149492
511,2140631.7812635577
512,2796631.8432636806
513,903961.8079236159
514,1101703.453406909
515,1101703.4534069088
847,23.999999999915513
848,76.0584519032394
983,23.95649402077748
984,48.51679656453419
1047,23.993084445178756
1048,43.99897951284634
1111,24.08681128772095
1112,51.77074929661952
1175,23.706177576846986
1176,44.883475400317366
1457,0.0
1483,0.0
1485,0.0
1487,0.0
1489,0.0
1491,0.0
1493,0.0
1495,0.0
1497,0.0
1499,0.0
1513,2561634.1112144236
1539,3177484.579312668
1541,3066250.016002129
1543,100775539.32544415
1545,35458079.1880594
2,1, 6, 1, 0,16, 0.00,60.00,Thursday
13,391330796.69755256
2,1, 6, 1, 0,16, 0.00,60.00,Thursday
7,23.6
8,23.6
9,23.6
10,23.6
11,23.6
12,310736.87147374224
133,310736.87147374224
134,828631.6572633126
135,690526.3810527605
136,155368.43573687112
209,207157.91431582815
210,517894.7857895704
211,725052.7001053985
212,155368.43573687112
213,310736.87147374224
214,207157.91431582815
215,207157.91431582815
216,155368.43573687112
217,155368.43573687112
218,903961.8079236159
291,489645.9792919595
364,612057.4741149495
401,489645.9792919595
474,612057.4741149492
511,2140631.7812635577
512,2796631.8432636806
513,903961.8079236159
514,1101703.453406909
515,1101703.4534069088
847,23.999999999991385
848,78.43859451875362
983,23.970619882835063
984,49.49449682119961
1047,23.99415613380842
1048,44.1778084532651
1111,24.063808951142448
1112,52.14074740757675
1175,23.707854945584877
1176,44.67115033711116
1457,0.0
1483,0.0
1485,0.0
1487,0.0
1489,0.0
1491,0.0
1493,0.0
1495,0.0
1497,0.0
1499,0.0
1513,2901237.0056484705
1539,6119463.0845575575
1541,3843005.932750621
1543,111458660.54683363
1545,36062251.10780111
2,1, 6, 1, 0,17, 0.00,60.00,Thursday
13,396223267.34571254
2,1, 6, 1, 0,17, 0.00,60.00,Thursday
7,23.3
8,23.3
9,23.3
10,23.3
11,23.3
12,310736.87147374224
133,310736.87147374224
134,828631.6572633126
135,690526.3810527605
136,155368.43573687112
209,207157.91431582815
210,517894.7857895704
211,725052.7001053985
212,155368.43573687112
213,310736.87147374224
214,207157.91431582815
215,207157.91431582815
216,155368.43573687112
217,155368.43573687112
218,903961.8079236159
291,489645.9792919595
364,612057.4741149495
401,489645.9792919595
474,612057.4741149492
511,2140631.7812635577
512,2796631.8432636806
513,903961.8079236159
514,1101703.453406909
515,1101703.4534069088
847,23.99999999999917
848,80.24915118268244
983,23.979881861430314
984,50.04835602541821
1047,23.995139699665398
1048,44.28769992114581
1111,24.047904964445937
1112,52.42425415685329
1175,23.709372007243477
1176,44.463382173458285
1457,0.0
1483,0.0
1485,0.0
1487,0.0
1489,0.0
1491,0.0
1493,0.0
1495,0.0
1497,0.0
1499,0.0
1513,3072268.9845526614
1539,6329948.818736162
1541,4079638.0321856085
1543,115887894.93390128
1545,35908410.62841297
2,1, 6, 1, 0,18, 0.00,60.00,Thursday
13,383305448.154871
2,1, 6, 1, 0,18, 0.00,60.00,Thursday
7,22.5
8,22.5
9,22.5
10,22.5
11,22.5
12,241684.23336846617
133,241684.23336846617
134,644491.2889825765
135,537076.074152147
136,120842.11668423309
209,161122.8222456441
210,402807.05561411026
211,563929.8778597544
212,120842.11668423309
213,241684.23336846617
214,161122.8222456441
215,161122.8222456441
216,120842.11668423309
217,120842.11668423309
218,703081.4061628124
291,380835.76167152403
364,476044.7020894051
401,380835.76167152403
474,476044.702089405
511,1664935.829871656
512,2175158.1003161953
513,703081.4061628124
514,856880.4637609291
515,856880.4637609291
847,23.999999999999925
848,81.41171924374976
983,23.98589136536109
984,49.89037631531849
1047,23.9960445119136
1048,44.293713685428834
1111,24.03686535184116
1112,52.7019346547233
1175,23.71070059457466
1176,44.2581797777494
1457,0.0
1483,0.0
1485,0.0
1487,0.0
1489,0.0
1491,0.0
1493,0.0
1495,0.0
1497,0.0
1499,0.0
1513,2706505.698812412
1539,4691251.242378897
1541,3839043.66366419
1543,108451952.53916168
1545,35487441.518696874
2,1, 6, 1, 0,19, 0.00,60.00,Thursday
13,362097998.25344414
2,1, 6, 1, 0,19, 0.00,60.00,Thursday
7,21.5
8,21.5
9,21.5
10,21.5
11,21.5
12,172631.59526319013
133,172631.59526319013
134,460350.9207018403
135,383625.76725153363
136,86315.79763159507
209,115087.73017546008
210,287719.3254386502
211,402807.05561411026
212,86315.79763159507
213,172631.59526319013
214,115087.73017546008
215,115087.73017546008
216,86315.79763159507
217,86315.79763159507
218,502201.00440200884
291,272025.5440510886
364,340031.9300638608
401,272025.5440510886
474,340031.93006386067
511,1189239.8784797543
512,1553684.3573687111
513,502201.00440200884
514,612057.4741149495
515,612057.4741149493
847,23.999999999999993
848,82.63915629386923
983,23.989919542373
984,49.666072783137
1047,23.9968484511876
1048,44.41245955805875
1111,24.028974753572474
1112,53.04195265405105
1175,23.711919211309194
1176,44.05598663656922
1457,0.0
1483,0.0
1485,0.0
1487,0.0
1489,0.0
1491,0.0
1493,0.0
1495,0.0
1497,0.0
1499,0.0
1513,1937290.4271130885
1539,1426199.411323603
1541,3051913.4623224707
1543,96381981.62222567
1545,35014136.0683027
2,1, 6, 1, 0,20, 0.00,60.00,Thursday
13,352968696.05489504
2,1, 6, 1, 0,20, 0.00,60.00,Thursday
7,20.4
8,20.4
9,20.4
10,20.4
11,20.4
12,172631.59526319013
133,172631.59526319013
134,460350.9207018403
135,383625.76725153363
136,86315.79763159507
209,115087.73017546008
210,287719.3254386502
211,402807.05561411026
212,86315.79763159507
213,172631.59526319013
214,115087.73017546008
215,115087.73017546008
216,86315.79763159507
217,86315.79763159507
218,502201.00440200884
291,272025.5440510886
364,340031.9300638608
401,272025.5440510886
474,340031.93006386067
511,1189239.8784797543
512,1553684.3573687111
513,502201.00440200884
514,612057.4741149495
515,612057.4741149493
847,23.999999999999996
848,83.94031265076711
983,23.993796336036375
984,50.16650446986439
1047,23.99746983396231
1048,44.67083664711229
1111,24.022222782643812
1112,53.4215186620425
1175,23.713259449914464
1176,43.85598750222724
1457,0.0
1483,0.0
1485,0.0
1487,0.0
1489,0.0
1491,0.0
1493,1790619.3879994778
1495,0.0
1497,0.0
1499,0.0
1513,1640693.505121282
1539,0.0
1541,2241595.1493969457
1543,88576210.75364816
1545,34621904.588265546
2,1, 6, 1, 0,21, 0.00,60.00,Thursday
13,20100928.946734916
2,1, 6, 1, 0,21, 0.00,60.00,Thursday
7,19.6
8,19.6
9,19.6
10,19.6
11,19.6
12,103578.95715791408
133,103578.95715791408
134,276210.5524211042
135,230175.46035092016
136,51789.47857895704
209,69052.63810527606
210,172631.59526319013
211,241684.23336846617
212,51789.47857895704
213,103578.95715791408
214,69052.63810527606
215,69052.63810527606
216,51789.47857895704
217,51789.47857895704
218,301320.6026412053
291,163215.32643065316
364,204019.15803831647
401,163215.32643065316
474,204019.1580383164
511,713543.9270878525
512,932210.6144212267
513,301320.6026412053
514,367234.48446896963
515,367234.48446896963
847,24.0
848,77.238188481932
983,22.121439089199434
984,53.81802439726865
1047,24.000115149204582
1048,44.75380750762981
1111,24.000295188528796
1112,49.02316413873238
1175,22.910900247698812
1176,48.087883169787816
1457,0.0
1483,0.0
1485,0.0
1487,0.0
1489,0.0
1491,0.0
1493,0.0
1495,0.0
1497,0.0
1499,0.0
1513,477341.64275144145
1539,0.0
1541,1465258.7656500526
1543,1025720.9229793566
1545,0.0
2,1, 6, 1, 0,22, 0.00,60.00,Thursday
13,7816898.133796271
2,1, 6, 1, 0,22, 0.00,60.00,Thursday
7,19.2
8,19.2
9,19.2
10,19.2
11,19.2
12,103578.95715791408
133,103578.95715791408
134,276210.5524211042
135,230175.46035092016
136,51789.47857895704
209,69052.63810527606
210,172631.59526319013
211,241684.23336846617
212,51789.47857895704
213,103578.95715791408
214,69052.63810527606
215,69052.63810527606
216,51789.47857895704
217,51789.47857895704
218,301320.6026412053
291,163215.32643065316
364,204019.15803831647
401,163215.32643065316
474,204019.1580383164
511,713543.9270878525
512,932210.6144212267
513,301320.6026412053
514,367234.48446896963
515,367234.48446896963
847,24.55599846919393
848,74.17778511498071
983,23.354731456765492
984,52.75252790008341
1047,27.821021148372573
1048,38.48941214056216
1111,23.504714258023906
1112,53.47873177395631
1175,23.16142691155365
1176,48.08068035626775
1457,0.0
1483,0.0
1485,0.0
1487,0.0
1489,0.0
1491,0.0
1493,0.0
1495,0.0
1497,0.0
1499,0.0
1513,0.0
1539,0.0
1541,0.0
1543,0.0
1545,0.0
2,1, 6, 1, 0,23, 0.00,60.00,Thursday
13,5002131.254262512
2,1, 6, 1, 0,23, 0.00,60.00,Thursday
7,19.0
8,19.0
9,19.0
10,19.0
11,19.0
12,34526.31905263803
133,34526.31905263803
134,92070.18414036806
135,76725.15345030672
136,17263.159526319014
209,23017.546035092015
210,57543.86508773004
211,80561.41112282206
212,17263.159526319014
213,34526.31905263803
214,23017.546035092015
215,23017.546035092015
216,17263.159526319014
217,17263.159526319014
218,100440.20088040177
291,54405.10881021773
364,68006.38601277216
401,54405.10881021773
474,68006.38601277214
511,237847.97569595082
512,310736.8714737422
513,100440.20088040177
514,122411.49482298987
515,122411.49482298987
847,23.258694757787865
848,69.62303185454385
983,22.31317624453811
984,56.43504052821923
1047,25.506240579503494
1048,45.64081520729716
1111,22.24959272559947
1112,57.27170511283003
1175,22.148911479296643
1176,52.392258896835386
1457,0.0
1483,0.0
1485,0.0
1487,0.0
1489,0.0
1491,0.0
1493,0.0
1495,0.0
1497,0.0
1499,0.0
1513,0.0
1539,0.0
1541,0.0
1543,0.0
1545,0.0
2,1, 6, 1, 0,24, 0.00,60.00,Thursday
13,4555207.235414474
2,1, 6, 1, 0,24, 0.00,60.00,Thursday
7,18.8
8,18.8
9,18.8
10,18.8
11,18.8
12,17263.159526319014
133,17263.159526319014
134,46035.09207018403
135,38362.57672515336
136,8631.579763159507